<?xml version="1.0" encoding="UTF-8"?>

<!-- generated on 05/29/21 17:31:57 by Eclipse SUMO dfrouter Version 1.7.0
<configuration xmlns:xsi="http://www.w3.org/2001/XMLSchema-instance" xsi:noNamespaceSchemaLocation="http://sumo.dlr.de/xsd/dfrouterConfiguration.xsd">

    <input>
        <net-file value="Carrefour.net.xml"/>
        <detector-files value="Detectors.det.xml"/>
        <measure-files value="edgedata.csv"/>
    </input>

    <output>
        <routes-output value="routes.rou.xml"/>
        <emitters-output value="vehicles.xml"/>
    </output>

</configuration>
-->

<routes xmlns:xsi="http://www.w3.org/2001/XMLSchema-instance" xsi:noNamespaceSchemaLocation="http://sumo.dlr.de/xsd/routes_file.xsd">

    <route id="-15800271_to_708065698#4" edges="-15800271 4039840#2 708065698#4"/>
    <route id="-15800271_to_-83279330#2" edges="-15800271 4039840#2 22759922#0 64297449 83198700#0 24027251 -673559990 -83279330#2"/>
    <route id="-15800271_to_4039790#1" edges="-15800271 4039840#2 4039790#1"/>
    <route id="-15800271_to_4262873" edges="-15800271 4039840#2 22759922#0 64297449 83198700#0 24027251 -673559990 4262873"/>
    <route id="-15800271_to_23141197#2" edges="-15800271 4039840#2 5213140 35098391#4 584422655 23141197#0 23141197#1 23141197#2"/>
    <route id="-15800271_to_84867913" edges="-15800271 4039840#2 5213140 35098391#4 4212168#0 4212168#2 4212168#3 4212168#4 4212168#5 34375603 84867913"/>
    <route id="-15800271_to_4212170" edges="-15800271 4039840#2 5213140 35098391#4 4212168#0 4212168#2 4212168#3 4212168#4 4212168#5 34375603 4212170"/>
    <route id="-15800271_to_35098391#14" edges="-15800271 4039840#2 5213140 35098391#4 35098391#10 35098391#14"/>
    <route id="-15800271_to_34779025#4" edges="-15800271 4039840#2 5213140 35098391#4 5213155 34779025#3 34779025#4"/>

    <route id="-23141197#3_to_23141197#2" edges="-23141197#3 -23141197#1 -23141197#0 -584422655 4212168#0 4212168#2 41739438#0 584422655 23141197#0 23141197#1 23141197#2"/>
    <route id="-23141197#3_to_84867913" edges="-23141197#3 -23141197#1 -23141197#0 -584422655 4212168#0 4212168#2 4212168#3 4212168#4 4212168#5 34375603 84867913"/>
    <route id="-23141197#3_to_35098391#14" edges="-23141197#3 5213152 35098391#14"/>
    <route id="-23141197#3_to_4212170" edges="-23141197#3 -23141197#1 -23141197#0 -584422655 4212168#0 4212168#2 4212168#3 4212168#4 4212168#5 34375603 4212170"/>
    <route id="-23141197#3_to_-83279330#2" edges="-23141197#3 -23141197#1 -23141197#0 -584422655 68881723#8 68881723#10 68881723#13 68881723#15 68881723#16 24027251 -673559990 -83279330#2"/>
    <route id="-23141197#3_to_708065698#4" edges="-23141197#3 -23141197#1 5213148 708065698#0 708065698#1 708065698#4"/>
    <route id="-23141197#3_to_4262873" edges="-23141197#3 -23141197#1 -23141197#0 -584422655 68881723#8 68881723#10 68881723#13 68881723#15 68881723#16 24027251 -673559990 4262873"/>
    <route id="-23141197#3_to_4039790#1" edges="-23141197#3 -23141197#1 5213148 708065698#0 708065698#1 4039790#1"/>
    <route id="-23141197#3_to_34779025#4" edges="-23141197#3 -23141197#1 -23141197#0 -584422655 5213155 34779025#3 34779025#4"/>

    <route id="22759907_to_-83279330#2" edges="22759907 64297445 83198700#0 24027251 -673559990 -83279330#2"/>
    <route id="22759907_to_4262873" edges="22759907 64297445 83198700#0 24027251 -673559990 4262873"/>
    <route id="22759907_to_23141197#2" edges="22759907 64297445 83198699#0 35098391#2 35098391#4 584422655 23141197#0 23141197#1 23141197#2"/>
    <route id="22759907_to_84867913" edges="22759907 64297445 83198699#0 35098391#2 35098391#4 4212168#0 4212168#2 4212168#3 4212168#4 4212168#5 34375603 84867913"/>
    <route id="22759907_to_4212170" edges="22759907 64297445 83198699#0 35098391#2 35098391#4 4212168#0 4212168#2 4212168#3 4212168#4 4212168#5 34375603 4212170"/>
    <route id="22759907_to_35098391#14" edges="22759907 64297445 83198699#0 35098391#2 35098391#4 35098391#10 35098391#14"/>
    <route id="22759907_to_708065698#4" edges="22759907 64297445 83198699#0 35098391#2 35098391#4 584422655 23141197#0 5213148 708065698#0 708065698#1 708065698#4"/>
    <route id="22759907_to_4039790#1" edges="22759907 64297445 83198699#0 35098391#2 35098391#4 584422655 23141197#0 5213148 708065698#0 708065698#1 4039790#1"/>
    <route id="22759907_to_34779025#4" edges="22759907 64297445 83198699#0 35098391#2 35098391#4 5213155 34779025#3 34779025#4"/>

    <route id="23141139_to_23141197#2" edges="23141139 34856443#0 41739438#0 584422655 23141197#0 23141197#1 23141197#2"/>
    <route id="23141139_to_84867913" edges="23141139 34856443#0 4212168#3 4212168#4 4212168#5 34375603 84867913"/>
    <route id="23141139_to_4212170" edges="23141139 34856443#0 4212168#3 4212168#4 4212168#5 34375603 4212170"/>
    <route id="23141139_to_-83279330#2" edges="23141139 34856443#0 41739437 68881723#10 68881723#13 68881723#15 68881723#16 24027251 -673559990 -83279330#2"/>
    <route id="23141139_to_35098391#14" edges="23141139 34856443#0 41739438#0 35098391#10 35098391#14"/>
    <route id="23141139_to_4262873" edges="23141139 34856443#0 41739437 68881723#10 68881723#13 68881723#15 68881723#16 24027251 -673559990 4262873"/>
    <route id="23141139_to_708065698#4" edges="23141139 34856443#0 41739438#0 584422655 23141197#0 5213148 708065698#0 708065698#1 708065698#4"/>
    <route id="23141139_to_34779025#4" edges="23141139 34779025#0 34779025#1 34779025#3 34779025#4"/>
    <route id="23141139_to_4039790#1" edges="23141139 34856443#0 41739438#0 584422655 23141197#0 5213148 708065698#0 708065698#1 4039790#1"/>

    <route id="37186877_to_708065698#4" edges="37186877 708065697 708065698#0 708065698#1 708065698#4"/>
    <route id="37186877_to_-83279330#2" edges="37186877 708065697 708065698#0 708065698#1 22759922#0 64297449 83198700#0 24027251 -673559990 -83279330#2"/>
    <route id="37186877_to_4039790#1" edges="37186877 708065697 708065698#0 708065698#1 4039790#1"/>
    <route id="37186877_to_4262873" edges="37186877 708065697 708065698#0 708065698#1 22759922#0 64297449 83198700#0 24027251 -673559990 4262873"/>
    <route id="37186877_to_23141197#2" edges="37186877 708065697 708065698#0 708065698#1 5213140 35098391#4 584422655 23141197#0 23141197#1 23141197#2"/>
    <route id="37186877_to_84867913" edges="37186877 708065697 708065698#0 708065698#1 5213140 35098391#4 4212168#0 4212168#2 4212168#3 4212168#4 4212168#5 34375603 84867913"/>
    <route id="37186877_to_4212170" edges="37186877 708065697 708065698#0 708065698#1 5213140 35098391#4 4212168#0 4212168#2 4212168#3 4212168#4 4212168#5 34375603 4212170"/>
    <route id="37186877_to_35098391#14" edges="37186877 708065697 708065698#0 708065698#1 5213140 35098391#4 35098391#10 35098391#14"/>
    <route id="37186877_to_34779025#4" edges="37186877 708065697 708065698#0 708065698#1 5213140 35098391#4 5213155 34779025#3 34779025#4"/>

    <route id="4039233#0_to_84867913" edges="4039233#0 19518124 84867913"/>
    <route id="4039233#0_to_4212170" edges="4039233#0 19518124 4212170"/>
    <route id="4039233#0_to_23141197#2" edges="4039233#0 4039233#3 723531478#0 723531478#2 41739438#0 584422655 23141197#0 23141197#1 23141197#2"/>
    <route id="4039233#0_to_-83279330#2" edges="4039233#0 865782399#0 4414205#0 859049006 68881723#16 24027251 -673559990 -83279330#2"/>
    <route id="4039233#0_to_35098391#14" edges="4039233#0 4039233#3 723531478#0 723531478#2 41739438#0 35098391#10 35098391#14"/>
    <route id="4039233#0_to_4262873" edges="4039233#0 865782399#0 4414205#0 859049006 68881723#16 24027251 -673559990 4262873"/>
    <route id="4039233#0_to_708065698#4" edges="4039233#0 4039233#3 723531478#0 723531478#2 41739438#0 584422655 23141197#0 5213148 708065698#0 708065698#1 708065698#4"/>
    <route id="4039233#0_to_34779025#4" edges="4039233#0 4039233#3 723531479 59850459#0 59850459#2 34779025#0 34779025#1 34779025#3 34779025#4"/>
    <route id="4039233#0_to_4039790#1" edges="4039233#0 4039233#3 723531478#0 723531478#2 41739438#0 584422655 23141197#0 5213148 708065698#0 708065698#1 4039790#1"/>

    <route id="4039790#0_to_708065698#4" edges="4039790#0 708065698#4"/>
    <route id="4039790#0_to_-83279330#2" edges="4039790#0 22759922#0 64297449 83198700#0 24027251 -673559990 -83279330#2"/>
    <route id="4039790#0_to_4039790#1" edges="4039790#0 4039790#1"/>
    <route id="4039790#0_to_4262873" edges="4039790#0 22759922#0 64297449 83198700#0 24027251 -673559990 4262873"/>
    <route id="4039790#0_to_23141197#2" edges="4039790#0 5213140 35098391#4 584422655 23141197#0 23141197#1 23141197#2"/>
    <route id="4039790#0_to_84867913" edges="4039790#0 5213140 35098391#4 4212168#0 4212168#2 4212168#3 4212168#4 4212168#5 34375603 84867913"/>
    <route id="4039790#0_to_4212170" edges="4039790#0 5213140 35098391#4 4212168#0 4212168#2 4212168#3 4212168#4 4212168#5 34375603 4212170"/>
    <route id="4039790#0_to_35098391#14" edges="4039790#0 5213140 35098391#4 35098391#10 35098391#14"/>
    <route id="4039790#0_to_34779025#4" edges="4039790#0 5213140 35098391#4 5213155 34779025#3 34779025#4"/>

    <route id="4039840#0_to_15800271" edges="4039840#0 15800271"/>
    <route id="4039840#0_to_708065698#4" edges="4039840#0 4039840#2 708065698#4"/>
    <route id="4039840#0_to_356108843" edges="4039840#0 356108843"/>
    <route id="4039840#0_to_-83279330#2" edges="4039840#0 4039840#2 22759922#0 64297449 83198700#0 24027251 -673559990 -83279330#2"/>
    <route id="4039840#0_to_4039790#1" edges="4039840#0 4039840#2 4039790#1"/>
    <route id="4039840#0_to_4262873" edges="4039840#0 4039840#2 22759922#0 64297449 83198700#0 24027251 -673559990 4262873"/>
    <route id="4039840#0_to_23141197#2" edges="4039840#0 4039840#2 5213140 35098391#4 584422655 23141197#0 23141197#1 23141197#2"/>
    <route id="4039840#0_to_84867913" edges="4039840#0 4039840#2 5213140 35098391#4 4212168#0 4212168#2 4212168#3 4212168#4 4212168#5 34375603 84867913"/>
    <route id="4039840#0_to_4212170" edges="4039840#0 4039840#2 5213140 35098391#4 4212168#0 4212168#2 4212168#3 4212168#4 4212168#5 34375603 4212170"/>
    <route id="4039840#0_to_35098391#14" edges="4039840#0 4039840#2 5213140 35098391#4 35098391#10 35098391#14"/>
    <route id="4039840#0_to_34779025#4" edges="4039840#0 4039840#2 5213140 35098391#4 5213155 34779025#3 34779025#4"/>

    <route id="4262859#0_to_84867913" edges="4262859#0 865782398#0 723531479 34375603 84867913"/>
    <route id="4262859#0_to_4212170" edges="4262859#0 865782398#0 723531479 34375603 4212170"/>
    <route id="4262859#0_to_23141197#2" edges="4262859#0 865782398#0 723531478#0 723531478#2 41739438#0 584422655 23141197#0 23141197#1 23141197#2"/>
    <route id="4262859#0_to_-83279330#2" edges="4262859#0 4414205#0 859049006 68881723#16 24027251 -673559990 -83279330#2"/>
    <route id="4262859#0_to_35098391#14" edges="4262859#0 865782398#0 723531478#0 723531478#2 41739438#0 35098391#10 35098391#14"/>
    <route id="4262859#0_to_4262873" edges="4262859#0 4414205#0 859049006 68881723#16 24027251 -673559990 4262873"/>
    <route id="4262859#0_to_708065698#4" edges="4262859#0 865782398#0 723531478#0 723531478#2 41739438#0 584422655 23141197#0 5213148 708065698#0 708065698#1 708065698#4"/>
    <route id="4262859#0_to_34779025#4" edges="4262859#0 865782398#0 723531479 59850459#0 59850459#2 34779025#0 34779025#1 34779025#3 34779025#4"/>
    <route id="4262859#0_to_4039790#1" edges="4262859#0 865782398#0 723531478#0 723531478#2 41739438#0 584422655 23141197#0 5213148 708065698#0 708065698#1 4039790#1"/>

    <route id="5213108_to_356108843" edges="5213108 356108843"/>

    <route id="5213138#0_to_-83279330#2" edges="5213138#0 35098391#0 35098391#2 68881723#16 24027251 -673559990 -83279330#2"/>
    <route id="5213138#0_to_23141197#2" edges="5213138#0 35098391#0 35098391#2 35098391#4 584422655 23141197#0 23141197#1 23141197#2"/>
    <route id="5213138#0_to_4262873" edges="5213138#0 35098391#0 35098391#2 68881723#16 24027251 -673559990 4262873"/>
    <route id="5213138#0_to_84867913" edges="5213138#0 35098391#0 35098391#2 35098391#4 4212168#0 4212168#2 4212168#3 4212168#4 4212168#5 34375603 84867913"/>
    <route id="5213138#0_to_4212170" edges="5213138#0 35098391#0 35098391#2 35098391#4 4212168#0 4212168#2 4212168#3 4212168#4 4212168#5 34375603 4212170"/>
    <route id="5213138#0_to_35098391#14" edges="5213138#0 35098391#0 35098391#2 35098391#4 35098391#10 35098391#14"/>
    <route id="5213138#0_to_708065698#4" edges="5213138#0 35098391#0 35098391#2 35098391#4 584422655 23141197#0 5213148 708065698#0 708065698#1 708065698#4"/>
    <route id="5213138#0_to_4039790#1" edges="5213138#0 35098391#0 35098391#2 35098391#4 584422655 23141197#0 5213148 708065698#0 708065698#1 4039790#1"/>
    <route id="5213138#0_to_34779025#4" edges="5213138#0 35098391#0 35098391#2 35098391#4 5213155 34779025#3 34779025#4"/>

    <route id="68881723#0_to_23141197#2" edges="68881723#0 68881723#4 584422655 23141197#0 23141197#1 23141197#2"/>
    <route id="68881723#0_to_84867913" edges="68881723#0 68881723#4 4212168#0 4212168#2 4212168#3 4212168#4 4212168#5 34375603 84867913"/>
    <route id="68881723#0_to_4212170" edges="68881723#0 68881723#4 4212168#0 4212168#2 4212168#3 4212168#4 4212168#5 34375603 4212170"/>
    <route id="68881723#0_to_35098391#14" edges="68881723#0 68881723#4 35098391#10 35098391#14"/>
    <route id="68881723#0_to_-83279330#2" edges="68881723#0 68881723#4 68881723#8 68881723#10 68881723#13 68881723#15 68881723#16 24027251 -673559990 -83279330#2"/>
    <route id="68881723#0_to_708065698#4" edges="68881723#0 68881723#4 584422655 23141197#0 5213148 708065698#0 708065698#1 708065698#4"/>
    <route id="68881723#0_to_4262873" edges="68881723#0 68881723#4 68881723#8 68881723#10 68881723#13 68881723#15 68881723#16 24027251 -673559990 4262873"/>
    <route id="68881723#0_to_34779025#4" edges="68881723#0 5213156 34779025#4"/>
    <route id="68881723#0_to_4039790#1" edges="68881723#0 68881723#4 584422655 23141197#0 5213148 708065698#0 708065698#1 4039790#1"/>

    <route id="83279330#0_to_24027249" edges="83279330#0 673559991 24027249"/>
    <route id="83279330#0_to_4262873" edges="83279330#0 4262873"/>

</routes>
